# vtk DataFile Version 2.0
brain_simplified, Created by Gmsh 4.12.2 
ASCII
DATASET UNSTRUCTURED_GRID
POINTS 20 double
-0.154572710395 -0.052491992712 0.327633291483
0.1450972907494989 -0.1955153826532721 0.1004431775511218
0.08384559336074274 -0.1794205680915689 -0.2419253496691128
-0.2892921604102014 -0.02561751853010254 -0.2194257019718857
-0.5286988605908014 0.2334452225418437 -0.1420092054206705
-0.48206136865028 0.1312626663927451 0.1786402271014586
-0.5928286763305763 -0.06561915570616483 -0.06213937038322945
-0.2400393022929975 -0.2473363527430283 -0.2108706573364907
-0.2843773050488808 -0.5050515827811616 -0.0201464035201079
0.07060230430262304 -0.4278237221437591 -0.1270217543197141
-0.4346097302898019 -0.276002025144203 0.1802443449629498
-0.4921934246188775 -0.3777008519716268 -0.06645925740300214
-0.1129661994013881 -0.3815732806720395 0.1880877830185954
-0.1124661917119936 0.3395634477204002 0.2306829373256608
-0.4275987436224857 0.3622398976606307 0.1156262225186939
0.1422315536161995 0.09139392560764273 0.1212171602829981
0.1250664321269806 0.3061009821869551 -0.01007993358703206
0.1826244969910019 0.1099994685113487 -0.1332607144255069
-0.1319061557188611 0.1462594597131346 -0.235370596176502
-0.2081911003628512 0.3698593744377412 -0.1662099538886561

CELLS 32 160
4 12 1 7 0
4 0 3 5 18
4 3 7 1 0
4 13 0 5 18
4 0 1 3 15
4 12 7 10 0
4 15 3 0 18
4 14 5 19 13
4 7 3 10 0
4 0 13 15 18
4 3 5 10 0
4 15 1 3 18
4 18 1 3 2
4 13 5 19 18
4 7 3 1 2
4 19 4 5 14
4 15 1 18 2
4 17 15 18 2
4 5 6 3 10
4 12 7 1 9
4 16 15 13 18
4 13 19 16 18
4 6 11 7 10
4 8 7 10 12
4 2 1 7 9
4 7 3 6 10
4 8 7 12 9
4 18 16 15 17
4 11 8 7 10
4 6 3 4 5
4 18 4 5 19
4 18 5 4 3

CELL_TYPES 32
10
10
10
10
10
10
10
10
10
10
10
10
10
10
10
10
10
10
10
10
10
10
10
10
10
10
10
10
10
10
10
10

CELL_DATA 32
SCALARS CellEntityIds int 1
LOOKUP_TABLE default
1
1
1
1
1
1
1
1
1
1
1
1
1
1
1
1
1
1
1
1
1
1
1
1
1
1
1
1
1
1
1
1
