# vtk DataFile Version 2.0
lh_simplified, Created by Gmsh 4.12.2 
ASCII
DATASET UNSTRUCTURED_GRID
POINTS 19 double
0.108377844095 -1.1070857048 0.985865950584
0.1682342063345253 -1.251757854595051 0.6954800641555552
0.4840580411628855 -1.182387163647957 0.8464470486616801
0.512870687183456 -0.9701829633943099 1.160593922231653
0.2810987335596328 -1.141516163969195 1.262482834052531
0.1259436487865761 -1.321456794887383 1.017979214176911
0.2668030168703998 -1.380971907282279 1.201398384248033
0.2647575549911084 -1.541352477887164 1.036181994337257
0.420849827490908 -1.372501401795453 0.745547345280767
0.524509604759218 -1.405648248854662 0.9612663426864008
0.5188566626726121 -1.210178705769979 1.100827653204376
0.4937304035131733 -1.689962321960111 0.8572597585950431
0.1861860801278786 -1.507347578970863 0.8669125617388269
0.22627755277641 -0.8613381810528 1.13670447875406
0.5007998600261963 -0.7140859586490339 1.066642865801941
0.3401505460647129 -0.602811397405894 0.8750906217475865
0.5010629968644498 -0.897437505345383 0.8689191076970599
0.3002002548416353 -1.050767883413168 0.6438744045206594
0.1707880465574154 -0.8875747771103115 0.8515092166188611

CELLS 28 140
4 3 10 0 2
4 16 3 0 2
4 10 0 4 3
4 0 13 3 16
4 0 4 5 10
4 10 5 0 2
4 13 0 18 16
4 16 0 18 2
4 0 13 4 3
4 5 10 9 2
4 10 6 5 9
4 6 5 4 10
4 2 9 5 8
4 0 17 18 2
4 7 12 5 9
4 9 12 5 8
4 1 0 5 2
4 0 1 17 2
4 6 7 5 9
4 13 14 16 15
4 2 5 1 8
4 16 18 17 2
4 9 7 12 11
4 16 18 13 15
4 12 1 5 8
4 8 9 12 11
4 14 3 13 16
4 17 18 1 0

CELL_TYPES 28
10
10
10
10
10
10
10
10
10
10
10
10
10
10
10
10
10
10
10
10
10
10
10
10
10
10
10
10

CELL_DATA 28
SCALARS CellEntityIds int 1
LOOKUP_TABLE default
1
1
1
1
1
1
1
1
1
1
1
1
1
1
1
1
1
1
1
1
1
1
1
1
1
1
1
1
