# vtk DataFile Version 2.0
rh_simplified, Created by Gmsh 4.12.2 
ASCII
DATASET UNSTRUCTURED_GRID
POINTS 18 double
0.521196007729 -1.10705327988 0.985819339752
0.4587248325048517 -1.188346105827266 0.6879310610583977
0.1461618496323783 -1.152502438663333 0.8297835790646336
0.1136357696075385 -1.091297958238422 1.160006111632246
0.3339227816622784 -0.9857033342257715 1.249541091891477
0.5164225490701189 -1.366655338347841 0.8401151565589758
0.4602114680652005 -1.417133170359905 1.04469067548627
0.3979192640672243 -1.240076109587464 1.216523782864051
0.1094494290175232 -1.455839481513336 1.084765858280671
0.352825958716187 -1.60757559333932 0.8623092297435305
0.2320618833848112 -1.345665457198469 0.7390898775049382
0.4843789028764547 -0.9296407614362558 0.8994228823608457
0.2057838058407331 -0.9566692444368354 0.7435026363348489
0.1171479747581603 -0.9107381815088269 0.970847652188102
0.3362347401082774 -0.7554620547142937 0.7983243187749537
0.3908709473903523 -0.7758039170053083 1.112890567426196
0.1277292555397852 -0.8050056187820422 1.178299538725491
0.1566186019065906 -0.610343916804302 1.019483271847746

CELLS 26 130
4 0 6 2 5
4 3 2 13 0
4 4 3 13 0
4 6 2 7 0
4 6 10 2 5
4 7 8 2 6
4 1 0 2 5
4 0 13 4 11
4 2 3 7 0
4 0 2 13 11
4 2 3 8 7
4 8 10 2 6
4 1 2 10 5
4 15 4 13 11
4 13 17 15 14
4 4 7 3 0
4 2 12 13 11
4 13 17 16 15
4 11 0 2 1
4 11 13 15 14
4 6 8 10 9
4 2 12 11 1
4 4 13 16 15
4 9 10 6 5
4 11 12 13 14
4 13 16 3 4

CELL_TYPES 26
10
10
10
10
10
10
10
10
10
10
10
10
10
10
10
10
10
10
10
10
10
10
10
10
10
10

CELL_DATA 26
SCALARS CellEntityIds int 1
LOOKUP_TABLE default
1
1
1
1
1
1
1
1
1
1
1
1
1
1
1
1
1
1
1
1
1
1
1
1
1
1
